 TITLE="VEL_V"
 VARIABLES="X","Y","V"
 ZONE I=         142 ,J=         281
   0.00000000      0.250000000       0.00000000    
   0.00000000      0.250000000       0.00000000    
  0.500000000      0.250000000       0.00000000    
   1.00000000      0.250000000       0.00000000    
   1.50000000      0.250000000       0.00000000    
   2.00000000      0.250000000       0.00000000    
   2.50000000      0.250000000       0.00000000    
   3.00000000      0.250000000       0.00000000    
   3.50000000      0.250000000       0.00000000    
   4.00000000      0.250000000       0.00000000    
   4.50000000      0.250000000       0.00000000    
   5.00000000      0.250000000       0.00000000    
   5.50000000      0.250000000       0.00000000    
   6.00000000      0.250000000       0.00000000    
   6.50000000      0.250000000       0.00000000    
   7.00000000      0.250000000       0.00000000    
   7.50000000      0.250000000       0.00000000    
   8.00000000      0.250000000       0.00000000    
   8.50000000      0.250000000       0.00000000    
   9.00000000      0.250000000       0.00000000    
   9.50000000      0.250000000       0.00000000    
   10.0000000      0.250000000       0.00000000    
   10.5000000      0.250000000       0.00000000    
   11.0000000      0.250000000       0.00000000    
   11.5000000      0.250000000       0.00000000    
   12.0000000      0.250000000       0.00000000    
   12.5000000      0.250000000       0.00000000    
   13.0000000      0.250000000       0.00000000    
   13.5000000      0.250000000       0.00000000    
   14.0000000      0.250000000       0.00000000    
   14.5000000      0.250000000       0.00000000    
   15.0000000      0.250000000       0.00000000    
   15.5000000      0.250000000       0.00000000    
   16.0000000      0.250000000       0.00000000    
   16.5000000      0.250000000       0.00000000    
   17.0000000      0.250000000       0.00000000    
   17.5000000      0.250000000       0.00000000    
   18.0000000      0.250000000       0.00000000    
   18.5000000      0.250000000       0.00000000    
   19.0000000      0.250000000       0.00000000    
   19.5000000      0.250000000       0.00000000    
   20.0000000      0.250000000       0.00000000    
   20.5000000      0.250000000       0.00000000    
   21.0000000      0.250000000       0.00000000    
   21.5000000      0.250000000       0.00000000    
   22.0000000      0.250000000       0.00000000    
   22.5000000      0.250000000       0.00000000    
   23.0000000      0.250000000       0.00000000    
   23.5000000      0.250000000       0.00000000    
   24.0000000      0.250000000       0.00000000    
   24.5000000      0.250000000       0.00000000    
   25.0000000      0.250000000       0.00000000    
   25.5000000      0.250000000       0.00000000    
   26.0000000      0.250000000       0.00000000    
   26.5000000      0.250000000       0.00000000    
   27.0000000      0.250000000       0.00000000    
   27.5000000      0.250000000       0.00000000    
   28.0000000      0.250000000       0.00000000    
   28.5000000      0.250000000       0.00000000    
   29.0000000      0.250000000       0.00000000    
   29.5000000      0.250000000       0.00000000    
   30.0000000      0.250000000       0.00000000    
   30.5000000      0.250000000       0.00000000    
   31.0000000      0.250000000       0.00000000    
   31.5000000      0.250000000       0.00000000    
   32.0000000      0.250000000       0.00000000    
   32.5000000      0.250000000       0.00000000    
   33.0000000      0.250000000       0.00000000    
   33.5000000      0.250000000       0.00000000    
   34.0000000      0.250000000       0.00000000    
   34.5000000      0.250000000       0.00000000    
   35.0000000      0.250000000       0.00000000    
   35.5000000      0.250000000       0.00000000    
   36.0000000      0.250000000       0.00000000    
   36.5000000      0.250000000       0.00000000    
   37.0000000      0.250000000       0.00000000    
   37.5000000      0.250000000       0.00000000    
   38.0000000      0.250000000       0.00000000    
   38.5000000      0.250000000       0.00000000    
   39.0000000      0.250000000       0.00000000    
   39.5000000      0.250000000       0.00000000    
   40.0000000      0.250000000       0.00000000    
   40.5000000      0.250000000       0.00000000    
   41.0000000      0.250000000       0.00000000    
   41.5000000      0.250000000       0.00000000    
   42.0000000      0.250000000       0.00000000    
   42.5000000      0.250000000       0.00000000    
   43.0000000      0.250000000       0.00000000    
   43.5000000      0.250000000       0.00000000    
   44.0000000      0.250000000       0.00000000    
   44.5000000      0.250000000       0.00000000    
   45.0000000      0.250000000       0.00000000    
   45.5000000      0.250000000       0.00000000    
   46.0000000      0.250000000       0.00000000    
   46.5000000      0.250000000       0.00000000    
   47.0000000      0.250000000       0.00000000    
   47.5000000      0.250000000       0.00000000    
   48.0000000      0.250000000       0.00000000    
   48.5000000      0.250000000       0.00000000    
   49.0000000      0.250000000       0.00000000    
   49.5000000      0.250000000       0.00000000    
   50.0000000      0.250000000       0.00000000    
   50.5000000      0.250000000       0.00000000    
   51.0000000      0.250000000       0.00000000    
   51.5000000      0.250000000       0.00000000    
   52.0000000      0.250000000       0.00000000    
   52.5000000      0.250000000       0.00000000    
   53.0000000      0.250000000       0.00000000    
   53.5000000      0.250000000       0.00000000    
   54.0000000      0.250000000       0.00000000    
   54.5000000      0.250000000       0.00000000    
   55.0000000      0.250000000       0.00000000    
   55.5000000      0.250000000       0.00000000    
   56.0000000      0.250000000       0.00000000    
   56.5000000      0.250000000       0.00000000    
   57.0000000      0.250000000       0.00000000    
   57.5000000      0.250000000       0.00000000    
   58.0000000      0.250000000       0.00000000    
   58.5000000      0.250000000       0.00000000    
   59.0000000      0.250000000       0.00000000    
   59.5000000      0.250000000       0.00000000    
   60.0000000      0.250000000       0.00000000    
   60.5000000      0.250000000       0.00000000    
   61.0000000      0.250000000       0.00000000    
   61.5000000      0.250000000       0.00000000    
   62.0000000      0.250000000       0.00000000    
   62.5000000      0.250000000       0.00000000    
   63.0000000      0.250000000       0.00000000    
   63.5000000      0.250000000       0.00000000    
   64.0000000      0.250000000       0.00000000    
   64.5000000      0.250000000       0.00000000    
   65.0000000      0.250000000       0.00000000    
   65.5000000      0.250000000       0.00000000    
   66.0000000      0.250000000       0.00000000    
   66.5000000      0.250000000       0.00000000    
   67.0000000      0.250000000       0.00000000    
   67.5000000      0.250000000       0.00000000    
   68.0000000      0.250000000       0.00000000    
   68.5000000      0.250000000       0.00000000    
   69.0000000      0.250000000       0.00000000    
   69.5000000      0.250000000       0.00000000    
   70.0000000      0.250000000       0.00000000    
   0.00000000      0.750000000       0.00000000    
   0.00000000      0.750000000       18.4861774    
  0.500000000      0.750000000      -6.99675894    
   1.00000000      0.750000000      -3.59571671    
   1.50000000      0.750000000      -1.96746624    
   2.00000000      0.750000000      -1.16354132    
   2.50000000      0.750000000     -0.734805822    
   3.00000000      0.750000000     -0.490152061    
   3.50000000      0.750000000     -0.341734499    
   4.00000000      0.750000000     -0.246787027    
   4.50000000      0.750000000     -0.183271125    
   5.00000000      0.750000000     -0.139160126    
   5.50000000      0.750000000     -0.107606903    
   6.00000000      0.750000000      -8.44227374E-02
   6.50000000      0.750000000      -6.69561848E-02
   7.00000000      0.750000000      -5.35991117E-02
   7.50000000      0.750000000      -4.31584269E-02
   8.00000000      0.750000000      -3.49274129E-02
   8.50000000      0.750000000      -2.82868203E-02
   9.00000000      0.750000000      -2.28937436E-02
   9.50000000      0.750000000      -1.84509140E-02
   10.0000000      0.750000000      -1.47404158E-02
   10.5000000      0.750000000      -1.16691878E-02
   11.0000000      0.750000000      -9.08004586E-03
   11.5000000      0.750000000      -6.83004176E-03
   12.0000000      0.750000000      -4.90723737E-03
   12.5000000      0.750000000      -3.25739617E-03
   13.0000000      0.750000000      -1.82930485E-03
   13.5000000      0.750000000      -5.11353253E-04
   14.0000000      0.750000000       5.56730258E-04
   14.5000000      0.750000000       1.55096722E-03
   15.0000000      0.750000000       2.45063356E-03
   15.5000000      0.750000000       3.27264890E-03
   16.0000000      0.750000000       3.96528840E-03
   16.5000000      0.750000000       4.66037914E-03
   17.0000000      0.750000000       5.26345707E-03
   17.5000000      0.750000000       5.85334469E-03
   18.0000000      0.750000000       6.39728690E-03
   18.5000000      0.750000000       6.88982382E-03
   19.0000000      0.750000000       7.38629745E-03
   19.5000000      0.750000000       7.84371141E-03
   20.0000000      0.750000000       8.31132662E-03
   20.5000000      0.750000000       8.73795897E-03
   21.0000000      0.750000000       9.14767385E-03
   21.5000000      0.750000000       9.53608472E-03
   22.0000000      0.750000000       9.94090922E-03
   22.5000000      0.750000000       1.02962032E-02
   23.0000000      0.750000000       1.06493495E-02
   23.5000000      0.750000000       1.09388726E-02
   24.0000000      0.750000000       1.12347901E-02
   24.5000000      0.750000000       1.14667192E-02
   25.0000000      0.750000000       1.16632711E-02
   25.5000000      0.750000000       1.17986007E-02
   26.0000000      0.750000000       1.18480064E-02
   26.5000000      0.750000000       1.18751703E-02
   27.0000000      0.750000000       1.17762750E-02
   27.5000000      0.750000000       1.15965772E-02
   28.0000000      0.750000000       1.14078186E-02
   28.5000000      0.750000000       1.09933922E-02
   29.0000000      0.750000000       1.05743501E-02
   29.5000000      0.750000000       1.00221010E-02
   30.0000000      0.750000000       9.41036828E-03
   30.5000000      0.750000000       8.67902022E-03
   31.0000000      0.750000000       7.92666152E-03
   31.5000000      0.750000000       7.09427521E-03
   32.0000000      0.750000000       6.25955593E-03
   32.5000000      0.750000000       5.38462726E-03
   33.0000000      0.750000000       4.62178094E-03
   33.5000000      0.750000000       3.88964801E-03
   34.0000000      0.750000000       3.28640454E-03
   34.5000000      0.750000000       2.84495624E-03
   35.0000000      0.750000000       2.63290992E-03
   35.5000000      0.750000000       2.65280390E-03
   36.0000000      0.750000000       3.00815003E-03
   36.5000000      0.750000000       3.73068266E-03
   37.0000000      0.750000000       4.80563100E-03
   37.5000000      0.750000000       6.36135647E-03
   38.0000000      0.750000000       8.37752782E-03
   38.5000000      0.750000000       1.08916266E-02
   39.0000000      0.750000000       1.38261737E-02
   39.5000000      0.750000000       1.73363667E-02
   40.0000000      0.750000000       2.12328713E-02
   40.5000000      0.750000000       2.55741104E-02
   41.0000000      0.750000000       3.02380845E-02
   41.5000000      0.750000000       3.51242796E-02
   42.0000000      0.750000000       4.00695764E-02
   42.5000000      0.750000000       4.49466184E-02
   43.0000000      0.750000000       4.94433753E-02
   43.5000000      0.750000000       5.32514453E-02
   44.0000000      0.750000000       5.60142063E-02
   44.5000000      0.750000000       5.73097318E-02
   45.0000000      0.750000000       5.66306151E-02
   45.5000000      0.750000000       5.35159297E-02
   46.0000000      0.750000000       4.74436358E-02
   46.5000000      0.750000000       3.80026475E-02
   47.0000000      0.750000000       2.49270983E-02
   47.5000000      0.750000000       8.08865391E-03
   48.0000000      0.750000000      -1.22768693E-02
   48.5000000      0.750000000      -3.56916860E-02
   49.0000000      0.750000000      -6.13256134E-02
   49.5000000      0.750000000      -8.78718793E-02
   50.0000000      0.750000000     -0.113815740    
   50.5000000      0.750000000     -0.137382284    
   51.0000000      0.750000000     -0.156702951    
   51.5000000      0.750000000     -0.169951886    
   52.0000000      0.750000000     -0.175872326    
   52.5000000      0.750000000     -0.173534185    
   53.0000000      0.750000000     -0.163209602    
   53.5000000      0.750000000     -0.145877242    
   54.0000000      0.750000000     -0.123534247    
   54.5000000      0.750000000      -9.89871621E-02
   55.0000000      0.750000000      -7.50726908E-02
   55.5000000      0.750000000      -5.46343811E-02
   56.0000000      0.750000000      -3.98932807E-02
   56.5000000      0.750000000      -3.22326645E-02
   57.0000000      0.750000000      -3.22940089E-02
   57.5000000      0.750000000      -3.92193124E-02
   58.0000000      0.750000000      -5.06670028E-02
   58.5000000      0.750000000      -6.38678670E-02
   59.0000000      0.750000000      -6.96422979E-02
   59.5000000      0.750000000      -3.71718556E-02
   60.0000000      0.750000000       9.28767305E-03
   60.5000000      0.750000000      -4.22214679E-02
   61.0000000      0.750000000      -3.03459968E-02
   61.5000000      0.750000000      0.426556975    
   62.0000000      0.750000000       1.28736258    
   62.5000000      0.750000000       2.09930158    
   63.0000000      0.750000000       2.60993576    
   63.5000000      0.750000000       2.85766292    
   64.0000000      0.750000000       2.91004658    
   64.5000000      0.750000000       2.79709601    
   65.0000000      0.750000000       2.52605009    
   65.5000000      0.750000000       2.08868051    
   66.0000000      0.750000000       1.45862079    
   66.5000000      0.750000000      0.588580370    
   67.0000000      0.750000000     -0.583111942    
   67.5000000      0.750000000      -2.09576297    
   68.0000000      0.750000000      -3.89091802    
   68.5000000      0.750000000      -5.66649914    
   69.0000000      0.750000000      -6.40103197    
   69.5000000      0.750000000      -1.80451155    
   70.0000000      0.750000000       0.00000000    
   0.00000000       1.25000000       0.00000000    
   0.00000000       1.25000000       30.6486187    
  0.500000000       1.25000000      -6.57692623    
   1.00000000       1.25000000      -4.88387871    
   1.50000000       1.25000000      -3.26441193    
   2.00000000       1.25000000      -2.22205877    
   2.50000000       1.25000000      -1.54927599    
   3.00000000       1.25000000      -1.10813427    
   3.50000000       1.25000000     -0.812375069    
   4.00000000       1.25000000     -0.608952701    
   4.50000000       1.25000000     -0.465362549    
   5.00000000       1.25000000     -0.361520827    
   5.50000000       1.25000000     -0.284659892    
   6.00000000       1.25000000     -0.226619944    
   6.50000000       1.25000000     -0.181998968    
   7.00000000       1.25000000     -0.147079229    
   7.50000000       1.25000000     -0.119397886    
   8.00000000       1.25000000      -9.71259400E-02
   8.50000000       1.25000000      -7.89727941E-02
   9.00000000       1.25000000      -6.40144348E-02
   9.50000000       1.25000000      -5.15936129E-02
   10.0000000       1.25000000      -4.11354788E-02
   10.5000000       1.25000000      -3.23120542E-02
   11.0000000       1.25000000      -2.47538965E-02
   11.5000000       1.25000000      -1.82669610E-02
   12.0000000       1.25000000      -1.26360580E-02
   12.5000000       1.25000000      -7.72030558E-03
   13.0000000       1.25000000      -3.38742323E-03
   13.5000000       1.25000000       4.19653486E-04
   14.0000000       1.25000000       3.80876707E-03
   14.5000000       1.25000000       6.84217643E-03
   15.0000000       1.25000000       9.61917639E-03
   15.5000000       1.25000000       1.20829986E-02
   16.0000000       1.25000000       1.43809617E-02
   16.5000000       1.25000000       1.64827481E-02
   17.0000000       1.25000000       1.84626896E-02
   17.5000000       1.25000000       2.02676877E-02
   18.0000000       1.25000000       2.20030416E-02
   18.5000000       1.25000000       2.36297417E-02
   19.0000000       1.25000000       2.51945313E-02
   19.5000000       1.25000000       2.66698282E-02
   20.0000000       1.25000000       2.80796364E-02
   20.5000000       1.25000000       2.94596292E-02
   21.0000000       1.25000000       3.07484772E-02
   21.5000000       1.25000000       3.19703966E-02
   22.0000000       1.25000000       3.31450067E-02
   22.5000000       1.25000000       3.42396684E-02
   23.0000000       1.25000000       3.52346897E-02
   23.5000000       1.25000000       3.61110866E-02
   24.0000000       1.25000000       3.68543454E-02
   24.5000000       1.25000000       3.74814682E-02
   25.0000000       1.25000000       3.79314125E-02
   25.5000000       1.25000000       3.81859802E-02
   26.0000000       1.25000000       3.82759124E-02
   26.5000000       1.25000000       3.80849019E-02
   27.0000000       1.25000000       3.76809463E-02
   27.5000000       1.25000000       3.70159484E-02
   28.0000000       1.25000000       3.60590406E-02
   28.5000000       1.25000000       3.48781347E-02
   29.0000000       1.25000000       3.34159434E-02
   29.5000000       1.25000000       3.17441858E-02
   30.0000000       1.25000000       2.98049413E-02
   30.5000000       1.25000000       2.76902821E-02
   31.0000000       1.25000000       2.54698358E-02
   31.5000000       1.25000000       2.32289713E-02
   32.0000000       1.25000000       2.09509656E-02
   32.5000000       1.25000000       1.88194234E-02
   33.0000000       1.25000000       1.69023350E-02
   33.5000000       1.25000000       1.53551856E-02
   34.0000000       1.25000000       1.42631233E-02
   34.5000000       1.25000000       1.37683144E-02
   35.0000000       1.25000000       1.40177971E-02
   35.5000000       1.25000000       1.52142094E-02
   36.0000000       1.25000000       1.73643269E-02
   36.5000000       1.25000000       2.06761714E-02
   37.0000000       1.25000000       2.52121575E-02
   37.5000000       1.25000000       3.11187990E-02
   38.0000000       1.25000000       3.83577347E-02
   38.5000000       1.25000000       4.69753742E-02
   39.0000000       1.25000000       5.69721982E-02
   39.5000000       1.25000000       6.82169199E-02
   40.0000000       1.25000000       8.05109292E-02
   40.5000000       1.25000000       9.36751217E-02
   41.0000000       1.25000000      0.107291296    
   41.5000000       1.25000000      0.120961264    
   42.0000000       1.25000000      0.134094760    
   42.5000000       1.25000000      0.145928308    
   43.0000000       1.25000000      0.155656129    
   43.5000000       1.25000000      0.162305191    
   44.0000000       1.25000000      0.164707646    
   44.5000000       1.25000000      0.161816359    
   45.0000000       1.25000000      0.152406365    
   45.5000000       1.25000000      0.135465920    
   46.0000000       1.25000000      0.110044941    
   46.5000000       1.25000000       7.55693167E-02
   47.0000000       1.25000000       3.18776444E-02
   47.5000000       1.25000000      -2.07628440E-02
   48.0000000       1.25000000      -8.13560113E-02
   48.5000000       1.25000000     -0.148256481    
   49.0000000       1.25000000     -0.219018772    
   49.5000000       1.25000000     -0.290595353    
   50.0000000       1.25000000     -0.359191835    
   50.5000000       1.25000000     -0.420701832    
   51.0000000       1.25000000     -0.470734417    
   51.5000000       1.25000000     -0.505279422    
   52.0000000       1.25000000     -0.520914674    
   52.5000000       1.25000000     -0.515682399    
   53.0000000       1.25000000     -0.489271224    
   53.5000000       1.25000000     -0.443771958    
   54.0000000       1.25000000     -0.383539766    
   54.5000000       1.25000000     -0.314766854    
   55.0000000       1.25000000     -0.244639024    
   55.5000000       1.25000000     -0.180039302    
   56.0000000       1.25000000     -0.126198933    
   56.5000000       1.25000000      -8.58296528E-02
   57.0000000       1.25000000      -5.79446182E-02
   57.5000000       1.25000000      -3.60536724E-02
   58.0000000       1.25000000      -4.41379519E-03
   58.5000000       1.25000000       5.80853149E-02
   59.0000000       1.25000000      0.174202099    
   59.5000000       1.25000000      0.450434893    
   60.0000000       1.25000000       1.03964591    
   60.5000000       1.25000000       1.83529401    
   61.0000000       1.25000000       2.62634087    
   61.5000000       1.25000000       3.41072941    
   62.0000000       1.25000000       4.22265768    
   62.5000000       1.25000000       4.92313623    
   63.0000000       1.25000000       5.34833384    
   63.5000000       1.25000000       5.45362043    
   64.0000000       1.25000000       5.25775766    
   64.5000000       1.25000000       4.78417587    
   65.0000000       1.25000000       4.04235029    
   65.5000000       1.25000000       3.01911283    
   66.0000000       1.25000000       1.67063367    
   66.5000000       1.25000000      -7.89145976E-02
   67.0000000       1.25000000      -2.31783009    
   67.5000000       1.25000000      -5.10100031    
   68.0000000       1.25000000      -8.36822128    
   68.5000000       1.25000000      -11.6312132    
   69.0000000       1.25000000      -13.0012274    
   69.5000000       1.25000000      -5.21480656    
   70.0000000       1.25000000       0.00000000    
   0.00000000       1.75000000       0.00000000    
   0.00000000       1.75000000       40.4061890    
  0.500000000       1.75000000      -5.06435966    
   1.00000000       1.75000000      -4.85817575    
   1.50000000       1.75000000      -3.63976097    
   2.00000000       1.75000000      -2.71514249    
   2.50000000       1.75000000      -2.03870106    
   3.00000000       1.75000000      -1.54775321    
   3.50000000       1.75000000      -1.19063675    
   4.00000000       1.75000000     -0.928682864    
   4.50000000       1.75000000     -0.734198987    
   5.00000000       1.75000000     -0.587794185    
   5.50000000       1.75000000     -0.475933671    
   6.00000000       1.75000000     -0.389254004    
   6.50000000       1.75000000     -0.321136713    
   7.00000000       1.75000000     -0.266878277    
   7.50000000       1.75000000     -0.223171860    
   8.00000000       1.75000000     -0.187494695    
   8.50000000       1.75000000     -0.158121794    
   9.00000000       1.75000000     -0.133662432    
   9.50000000       1.75000000     -0.113115035    
   10.0000000       1.75000000      -9.57384855E-02
   10.5000000       1.75000000      -8.08953196E-02
   11.0000000       1.75000000      -6.81247264E-02
   11.5000000       1.75000000      -5.70561253E-02
   12.0000000       1.75000000      -4.74185012E-02
   12.5000000       1.75000000      -3.89431529E-02
   13.0000000       1.75000000      -3.14485058E-02
   13.5000000       1.75000000      -2.48204451E-02
   14.0000000       1.75000000      -1.88329667E-02
   14.5000000       1.75000000      -1.34907700E-02
   15.0000000       1.75000000      -8.65710061E-03
   15.5000000       1.75000000      -4.20268299E-03
   16.0000000       1.75000000      -1.02283579E-04
   16.5000000       1.75000000       3.65647464E-03
   17.0000000       1.75000000       7.15619605E-03
   17.5000000       1.75000000       1.04496432E-02
   18.0000000       1.75000000       1.35501139E-02
   18.5000000       1.75000000       1.65023077E-02
   19.0000000       1.75000000       1.92479920E-02
   19.5000000       1.75000000       2.19216067E-02
   20.0000000       1.75000000       2.44672690E-02
   20.5000000       1.75000000       2.68537849E-02
   21.0000000       1.75000000       2.91417297E-02
   21.5000000       1.75000000       3.13051827E-02
   22.0000000       1.75000000       3.32896709E-02
   22.5000000       1.75000000       3.51204425E-02
   23.0000000       1.75000000       3.67673822E-02
   23.5000000       1.75000000       3.81969959E-02
   24.0000000       1.75000000       3.94166782E-02
   24.5000000       1.75000000       4.02909406E-02
   25.0000000       1.75000000       4.08916511E-02
   25.5000000       1.75000000       4.11563702E-02
   26.0000000       1.75000000       4.10119668E-02
   26.5000000       1.75000000       4.05008718E-02
   27.0000000       1.75000000       3.95317562E-02
   27.5000000       1.75000000       3.81548367E-02
   28.0000000       1.75000000       3.62837352E-02
   28.5000000       1.75000000       3.40067223E-02
   29.0000000       1.75000000       3.13198902E-02
   29.5000000       1.75000000       2.82721221E-02
   30.0000000       1.75000000       2.49037854E-02
   30.5000000       1.75000000       2.13223901E-02
   31.0000000       1.75000000       1.76094435E-02
   31.5000000       1.75000000       1.38710206E-02
   32.0000000       1.75000000       1.03514101E-02
   32.5000000       1.75000000       7.15211034E-03
   33.0000000       1.75000000       4.48005553E-03
   33.5000000       1.75000000       2.54372810E-03
   34.0000000       1.75000000       1.60069775E-03
   34.5000000       1.75000000       1.86764740E-03
   35.0000000       1.75000000       3.53504997E-03
   35.5000000       1.75000000       6.87818741E-03
   36.0000000       1.75000000       1.21439369E-02
   36.5000000       1.75000000       1.94362272E-02
   37.0000000       1.75000000       2.89279800E-02
   37.5000000       1.75000000       4.07295637E-02
   38.0000000       1.75000000       5.48293442E-02
   38.5000000       1.75000000       7.12431520E-02
   39.0000000       1.75000000       8.97567123E-02
   39.5000000       1.75000000      0.110099189    
   40.0000000       1.75000000      0.131872624    
   40.5000000       1.75000000      0.154429644    
   41.0000000       1.75000000      0.177124411    
   41.5000000       1.75000000      0.198975742    
   42.0000000       1.75000000      0.218824744    
   42.5000000       1.75000000      0.235361591    
   43.0000000       1.75000000      0.247063354    
   43.5000000       1.75000000      0.252300471    
   44.0000000       1.75000000      0.249366999    
   44.5000000       1.75000000      0.236537486    
   45.0000000       1.75000000      0.212180302    
   45.5000000       1.75000000      0.174917042    
   46.0000000       1.75000000      0.123717032    
   46.5000000       1.75000000       5.80446161E-02
   47.0000000       1.75000000      -2.19340380E-02
   47.5000000       1.75000000     -0.115296796    
   48.0000000       1.75000000     -0.220201179    
   48.5000000       1.75000000     -0.333830029    
   49.0000000       1.75000000     -0.452393144    
   49.5000000       1.75000000     -0.571075439    
   50.0000000       1.75000000     -0.684272647    
   50.5000000       1.75000000     -0.785697162    
   51.0000000       1.75000000     -0.869013309    
   51.5000000       1.75000000     -0.927904546    
   52.0000000       1.75000000     -0.957089186    
   52.5000000       1.75000000     -0.952805996    
   53.0000000       1.75000000     -0.913807750    
   53.5000000       1.75000000     -0.841828763    
   54.0000000       1.75000000     -0.742160201    
   54.5000000       1.75000000     -0.623049915    
   55.0000000       1.75000000     -0.494623274    
   55.5000000       1.75000000     -0.366499454    
   56.0000000       1.75000000     -0.245090500    
   56.5000000       1.75000000     -0.130389050    
   57.0000000       1.75000000      -1.29817789E-02
   57.5000000       1.75000000      0.130704418    
   58.0000000       1.75000000      0.354254216    
   58.5000000       1.75000000      0.759684920    
   59.0000000       1.75000000       1.42892253    
   59.5000000       1.75000000       2.30915284    
   60.0000000       1.75000000       3.28711629    
   60.5000000       1.75000000       4.26931190    
   61.0000000       1.75000000       5.16875982    
   61.5000000       1.75000000       5.95401478    
   62.0000000       1.75000000       6.61345530    
   62.5000000       1.75000000       7.06930304    
   63.0000000       1.75000000       7.21988726    
   63.5000000       1.75000000       7.01784420    
   64.0000000       1.75000000       6.46925974    
   64.5000000       1.75000000       5.60190010    
   65.0000000       1.75000000       4.44015646    
   65.5000000       1.75000000       2.98439002    
   66.0000000       1.75000000       1.19231248    
   66.5000000       1.75000000      -1.03209841    
   67.0000000       1.75000000      -3.83800650    
   67.5000000       1.75000000      -7.41723204    
   68.0000000       1.75000000      -11.8145742    